12   
Iteration 0 Energy -230.62350800
C        0.0000000000    1.3970000000    0.0000000000
C        1.2098000000    0.6985000000    0.0000000000
C        1.2098000000   -0.6985000000    0.0000000000
C        0.0000000000   -1.3970000000    0.0000000000
C       -1.2098000000   -0.6985000000    0.0000000000
C       -1.2098000000    0.6985000000    0.0000000000
H        0.0000000000    2.4810000000    0.0000000000
H        2.1486000000    1.2405000000    0.0000000000
H        2.1486000000   -1.2405000000    0.0000000000
H        0.0000000000   -2.4810000000    0.0000000000
H       -2.1486000000   -1.2405000000    0.0000000000
H       -2.1486000000    1.2405000000    0.0000000000
12   
Iteration 1 Energy -230.62443490
C       -0.0000000000    1.3859472157   -0.0000000000
C        1.2003657274    0.6930053840    0.0000000000
C        1.2003657274   -0.6930053840   -0.0000000000
C       -0.0000000000   -1.3859472157   -0.0000000000
C       -1.2003657274   -0.6930053840    0.0000000000
C       -1.2003657274    0.6930053840    0.0000000000
H       -0.0000000000    2.4579957618   -0.0000000000
H        2.1287768337    1.2290445048   -0.0000000000
H        2.1287768337   -1.2290445048    0.0000000000
H       -0.0000000000   -2.4579957618   -0.0000000000
H       -2.1287768337   -1.2290445048    0.0000000000
H       -2.1287768337    1.2290445048    0.0000000000
12   
Iteration 2 Energy -230.62447476
C        0.0000000000    1.3886306648    0.0000000000
C        1.2023006030    0.6942200745    0.0000000000
C        1.2023006030   -0.6942200746   -0.0000000000
C        0.0000000000   -1.3886306648   -0.0000000000
C       -1.2023006029   -0.6942200746   -0.0000000000
C       -1.2023006029    0.6942200745    0.0000000000
H        0.0000000000    2.4618497968    0.0000000000
H        2.1317682569    1.2307627347    0.0000000000
H        2.1317682569   -1.2307627347   -0.0000000000
H        0.0000000000   -2.4618497968   -0.0000000000
H       -2.1317682569   -1.2307627347   -0.0000000000
H       -2.1317682569    1.2307627347    0.0000000000
12   
Iteration 3 Energy -230.62447424
C       -0.0000000000    1.3876323416    0.0000000000
C        1.2027121135    0.6941427469    0.0000000000
C        1.2027121135   -0.6941427468   -0.0000000000
C        0.0000000000   -1.3876323416   -0.0000000000
C       -1.2027121135   -0.6941427468   -0.0000000000
C       -1.2027121135    0.6941427468    0.0000000000
H       -0.0000000000    2.4609339308    0.0000000000
H        2.1321087057    1.2310181018    0.0000000000
H        2.1321087057   -1.2310181017   -0.0000000000
H        0.0000000000   -2.4609339307   -0.0000000000
H       -2.1321087057   -1.2310181018   -0.0000000000
H       -2.1321087057    1.2310181017    0.0000000000
