3    
Iteration 0 Energy -204.88465567
N       -4.3953900000    1.8738000000    0.0000000000
O       -3.9097800000    3.0952000000    0.0000000000
O       -3.6559400000    0.9381000000    0.0000000000
3    
Iteration 1 Energy -204.89765131
N       -4.2900892798    1.9064670758    0.0000000000
O       -3.9736393161    3.1563963025   -0.0000000000
O       -3.6976662175    0.8444111488    0.0000000000
3    
Iteration 2 Energy -204.90066707
N       -4.2923128124    1.9221009405    0.0000000000
O       -3.9747655102    3.1269562509    0.0000000000
O       -3.6938544272    0.8572350328    0.0000000000
3    
Iteration 3 Energy -204.90103832
N       -4.3009721537    1.9288997094    0.0000000000
O       -3.9721551713    3.1110343538    0.0000000000
O       -3.6872937694    0.8646439150    0.0000000000
3    
Iteration 4 Energy -204.90107071
N       -4.3026183215    1.9271925405    0.0000000000
O       -3.9718302099    3.1134848615    0.0000000000
O       -3.6858913640    0.8631754426    0.0000000000
3    
Iteration 5 Energy -204.90107312
N       -4.3027080962    1.9269886183    0.0000000000
O       -3.9727219229    3.1135054544    0.0000000000
O       -3.6848031025    0.8623404056   -0.0000000000
3    
Iteration 6 Energy -204.90107333
N       -4.3026465039    1.9265167455   -0.0000000000
O       -3.9737124411    3.1131432574   -0.0000000000
O       -3.6837389773    0.8619352873   -0.0000000000
