6    
Iteration 0 Energy -407.73108626
N       -4.8463800000    1.7610900000    0.0000000000
N       -3.4688800000    1.7841500000    0.0000000000
O       -2.8238500000    2.9316900000    0.0000000000
O       -2.8505500000    0.7627600000    0.0000000000
O       -5.4647100000    2.7824800000    0.0000000000
O       -5.4914100000    0.6135500000    0.0000000000
6    
Iteration 1 Energy -407.75091767
N       -4.8596948668    1.7358250128   -0.0000000000
N       -3.4505677057    1.7588496815   -0.0000000000
O       -2.9886649888    2.9475423180   -0.0000000000
O       -2.8311160647    0.7389318718    0.0000000000
O       -5.3327644486    2.8313421715    0.0000000000
O       -5.4829719254    0.6232289444    0.0000000000
6    
Iteration 2 Energy -407.76253983
N       -4.9158221085    1.7820681500    0.0000000000
N       -3.3908516428    1.8065723015   -0.0000000000
O       -2.9134831030    2.8614784069   -0.0000000000
O       -2.9676149232    0.6939992080    0.0000000000
O       -5.5087691336    2.8164423510    0.0000000000
O       -5.2492390886    0.6751595824    0.0000000000
6    
Iteration 3 Energy -407.77505049
N       -4.9445159941    1.7319129387    0.0000000000
N       -3.3854571634    1.8114299333    0.0000000000
O       -2.8837881365    2.8971799312   -0.0000000000
O       -2.8558171558    0.7396243129   -0.0000000000
O       -5.4468394984    2.8187134335    0.0000000000
O       -5.4293620510    0.6368594500   -0.0000000000
6    
Iteration 4 Energy -407.77279192
N       -4.9321953018    1.7728378088    0.0000000000
N       -3.3481014792    1.7574776183    0.0000000000
O       -2.9606577322    2.8976611271   -0.0000000000
O       -2.7914364468    0.6954766850   -0.0000000000
O       -5.4868808673    2.8350198118    0.0000000000
O       -5.4265081715    0.6772469482   -0.0000000000
6    
Iteration 5 Energy -407.77731412
N       -4.9545705254    1.7501461622    0.0000000000
N       -3.3605179984    1.7936357768   -0.0000000000
O       -2.9101367419    2.8977145484   -0.0000000000
O       -2.8435082574    0.7146957149    0.0000000000
O       -5.4683654352    2.8313237000    0.0000000000
O       -5.4086810400    0.6482040967   -0.0000000000
6    
Iteration 6 Energy -407.77742616
N       -4.9595412519    1.7500078896    0.0000000000
N       -3.3554850136    1.7950204445    0.0000000000
O       -2.9059956786    2.8985362345   -0.0000000000
O       -2.8447707834    0.7149931507   -0.0000000000
O       -5.4701705714    2.8302600914    0.0000000000
O       -5.4098166973    0.6469021880   -0.0000000000
6    
Iteration 7 Energy -407.77748808
N       -4.9669528516    1.7508995339   -0.0000000000
N       -3.3485573933    1.7948978978   -0.0000000000
O       -2.9002630347    2.8996059476    0.0000000000
O       -2.8423619723    0.7154297678    0.0000000000
O       -5.4742736302    2.8296892517    0.0000000000
O       -5.4133711122    0.6451975988    0.0000000000
6    
Iteration 8 Energy -407.77748900
N       -4.9674589452    1.7505478099    0.0000000000
N       -3.3478025055    1.7946701421    0.0000000000
O       -2.9004093921    2.8995725411   -0.0000000000
O       -2.8407659494    0.7157161387   -0.0000000000
O       -5.4743805716    2.8294564367   -0.0000000000
O       -5.4149626288    0.6457569290   -0.0000000000
