6    
Iteration 0 Energy -409.75638524
N       -4.8463800000    1.7610900000    0.0000000000
N       -3.4688800000    1.7841500000    0.0000000000
O       -2.8238500000    2.9316900000    0.0000000000
O       -2.8505500000    0.7627600000    0.0000000000
O       -5.4647100000    2.7824800000    0.0000000000
O       -5.4914100000    0.6135500000    0.0000000000
6    
Iteration 1 Energy -409.78329074
N       -4.8712618133    1.7491447026   -0.0000000000
N       -3.4269652734    1.7413737504   -0.0000000000
O       -3.0010127127    2.9613824425   -0.0000000000
O       -2.7838371459    0.7022305877    0.0000000000
O       -5.3693654104    2.8650860579   -0.0000000000
O       -5.4933376442    0.6165024588    0.0000000000
6    
Iteration 2 Energy -409.80697311
N       -4.9573789856    1.7833569151   -0.0000000000
N       -3.3638825003    1.8067573033    0.0000000000
O       -2.8163206038    2.9182968460    0.0000000000
O       -2.8701495055    0.6483314972    0.0000000000
O       -5.5984516557    2.8706048924   -0.0000000000
O       -5.3404417015    0.6092269213   -0.0000000000
6    
Iteration 3 Energy -409.81402743
N       -5.0231039300    1.7085411716   -0.0000000000
N       -3.3259831587    1.8392305511    0.0000000000
O       -2.8181500770    2.9331238406   -0.0000000000
O       -2.8059073155    0.6970821143   -0.0000000000
O       -5.5028987536    2.8705561291   -0.0000000000
O       -5.4693537299    0.5888270481   -0.0000000000
6    
Iteration 4 Energy -409.81901065
N       -5.0303635650    1.7430398730   -0.0000000000
N       -3.2601097136    1.7916233022   -0.0000000000
O       -2.8626629488    2.9299608224   -0.0000000000
O       -2.7247185512    0.6726232283    0.0000000000
O       -5.5612144962    2.8627578737   -0.0000000000
O       -5.5046254018    0.6380581582   -0.0000000000
6    
Iteration 5 Energy -409.82118530
N       -5.0465888954    1.7442587883   -0.0000000000
N       -3.2576732923    1.7923878758   -0.0000000000
O       -2.8424403166    2.9459627066   -0.0000000000
O       -2.7379330528    0.6801891658    0.0000000000
O       -5.5457617447    2.8663272218   -0.0000000000
O       -5.5142394764    0.6081188316   -0.0000000000
6    
Iteration 6 Energy -409.82151517
N       -5.0631699192    1.7431930147   -0.0000000000
N       -3.2507127945    1.7956631213    0.0000000000
O       -2.8285220383    2.9431517466    0.0000000000
O       -2.7382201985    0.6846634764    0.0000000000
O       -5.5519894574    2.8656603871   -0.0000000000
O       -5.5128801575    0.6040526054   -0.0000000000
6    
Iteration 7 Energy -409.82157775
N       -5.0691619774    1.7439381361   -0.0000000000
N       -3.2468524668    1.7972419648   -0.0000000000
O       -2.8167317824    2.9423273946    0.0000000000
O       -2.7372970052    0.6853866873   -0.0000000000
O       -5.5633589188    2.8629080458   -0.0000000000
O       -5.5126826153    0.6038336537   -0.0000000000
6    
Iteration 8 Energy -409.82159278
N       -5.0712828978    1.7449814132    0.0000000000
N       -3.2447475813    1.7987645221    0.0000000000
O       -2.8090410734    2.9420424956    0.0000000000
O       -2.7383569230    0.6850300318   -0.0000000000
O       -5.5723919156    2.8609382669   -0.0000000000
O       -5.5106883196    0.6033433325   -0.0000000000
6    
Iteration 9 Energy -409.82159387
N       -5.0711945361    1.7452617755   -0.0000000000
N       -3.2444746346    1.7993916582    0.0000000000
O       -2.8076614788    2.9422672620    0.0000000000
O       -2.7395563339    0.6848494875    0.0000000000
O       -5.5746630396    2.8603337367   -0.0000000000
O       -5.5090728254    0.6028598080    0.0000000000
6    
Iteration 10 Energy -409.82159401
N       -5.0709629180    1.7452207235    0.0000000000
N       -3.2445759155    1.7997341379    0.0000000000
O       -2.8076813620    2.9425640323    0.0000000000
O       -2.7400545908    0.6850359080   -0.0000000000
O       -5.5753641601    2.8599358413   -0.0000000000
O       -5.5080214054    0.6024337983   -0.0000000000
