6    
Iteration 0 Energy -409.75638524
N       -4.8463800000    1.7610900000    0.0000000000
N       -3.4688800000    1.7841500000    0.0000000000
O       -2.8238500000    2.9316900000    0.0000000000
O       -2.8505500000    0.7627600000    0.0000000000
O       -5.4647100000    2.7824800000    0.0000000000
O       -5.4914100000    0.6135500000    0.0000000000
6    
Iteration 1 Energy -409.78329074
N       -4.8712618135    1.7491447033   -0.0000000000
N       -3.4269652730    1.7413737507   -0.0000000000
O       -3.0010127128    2.9613824425   -0.0000000000
O       -2.7838371467    0.7022305867   -0.0000000000
O       -5.3693654112    2.8650860583    0.0000000000
O       -5.4933376426    0.6165024585   -0.0000000000
6    
Iteration 2 Energy -409.80697311
N       -4.9573789857    1.7833569153   -0.0000000000
N       -3.3638825007    1.8067573044    0.0000000000
O       -2.8163206021    2.9182968458    0.0000000000
O       -2.8701495071    0.6483314977    0.0000000000
O       -5.5984516559    2.8706048916   -0.0000000000
O       -5.3404417009    0.6092269207   -0.0000000000
6    
Iteration 3 Energy -409.81402743
N       -5.0231039303    1.7085411721    0.0000000000
N       -3.3259831583    1.8392305507   -0.0000000000
O       -2.8181500774    2.9331238404    0.0000000000
O       -2.8059073144    0.6970821140   -0.0000000000
O       -5.5028987537    2.8705561291    0.0000000000
O       -5.4693537306    0.5888270489    0.0000000000
6    
Iteration 4 Energy -409.81901065
N       -5.0303635651    1.7430398740    0.0000000000
N       -3.2601097131    1.7916233013    0.0000000000
O       -2.8626629490    2.9299608220    0.0000000000
O       -2.7247185504    0.6726232274   -0.0000000000
O       -5.5612144971    2.8627578742   -0.0000000000
O       -5.5046254018    0.6380581594    0.0000000000
6    
Iteration 5 Energy -409.82118530
N       -5.0465888955    1.7442587887    0.0000000000
N       -3.2576732922    1.7923878756    0.0000000000
O       -2.8424403161    2.9459627065    0.0000000000
O       -2.7379330530    0.6801891654   -0.0000000000
O       -5.5457617443    2.8663272225   -0.0000000000
O       -5.5142394766    0.6081188321   -0.0000000000
6    
Iteration 6 Energy -409.82151517
N       -5.0631699190    1.7431930151   -0.0000000000
N       -3.2507127945    1.7956631213    0.0000000000
O       -2.8285220379    2.9431517464    0.0000000000
O       -2.7382201988    0.6846634761    0.0000000000
O       -5.5519894569    2.8656603878   -0.0000000000
O       -5.5128801577    0.6040526060   -0.0000000000
6    
Iteration 7 Energy -409.82157775
N       -5.0691619774    1.7439381366   -0.0000000000
N       -3.2468524667    1.7972419648    0.0000000000
O       -2.8167317820    2.9423273944    0.0000000000
O       -2.7372970055    0.6853866872    0.0000000000
O       -5.5633589185    2.8629080464   -0.0000000000
O       -5.5126826155    0.6038336543   -0.0000000000
6    
Iteration 8 Energy -409.82159278
N       -5.0712828982    1.7449814138   -0.0000000000
N       -3.2447475816    1.7987645222    0.0000000000
O       -2.8090410734    2.9420424956    0.0000000000
O       -2.7383569236    0.6850300317    0.0000000000
O       -5.5723919157    2.8609382676   -0.0000000000
O       -5.5106883203    0.6033433332   -0.0000000000
6    
Iteration 9 Energy -409.82159387
N       -5.0711945365    1.7452617760    0.0000000000
N       -3.2444746350    1.7993916583    0.0000000000
O       -2.8076614789    2.9422672619    0.0000000000
O       -2.7395563346    0.6848494874    0.0000000000
O       -5.5746630397    2.8603337373    0.0000000000
O       -5.5090728260    0.6028598086   -0.0000000000
6    
Iteration 10 Energy -409.82159401
N       -5.0709629183    1.7452207240   -0.0000000000
N       -3.2445759158    1.7997341377    0.0000000000
O       -2.8076813620    2.9425640320    0.0000000000
O       -2.7400545914    0.6850359077    0.0000000000
O       -5.5753641599    2.8599358419    0.0000000000
O       -5.5080214062    0.6024337990   -0.0000000000
