3    
Iteration 0 Energy -203.88269537
N       -4.3953900000    1.8738000000    0.0000000000
O       -3.9097800000    3.0952000000    0.0000000000
O       -3.6559400000    0.9381000000    0.0000000000
3    
Iteration 1 Energy -203.90135451
N       -4.2731864772    1.9029203622   -0.0000000000
O       -3.9775263992    3.1357172424    0.0000000000
O       -3.7103971236    0.8684623954   -0.0000000000
3    
Iteration 2 Energy -203.90605961
N       -4.2574632144    1.9251483177   -0.0000000000
O       -3.9865706318    3.0897083651   -0.0000000000
O       -3.7170761537    0.8922433170    0.0000000000
3    
Iteration 3 Energy -203.90703072
N       -4.2751641680    1.9280651493   -0.0000000000
O       -3.9793213331    3.0849533047   -0.0000000000
O       -3.7066244987    0.8940815458    0.0000000000
3    
Iteration 4 Energy -203.90715133
N       -4.2777929146    1.9321401856   -0.0000000000
O       -3.9794107438    3.0834369059   -0.0000000000
O       -3.7039063411    0.8915229080    0.0000000000
3    
Iteration 5 Energy -203.90715541
N       -4.2780118821    1.9322634655   -0.0000000000
O       -3.9795008924    3.0847533189   -0.0000000000
O       -3.7035972249    0.8900832150    0.0000000000
3    
Iteration 6 Energy -203.90715593
N       -4.2778729284    1.9324760637   -0.0000000000
O       -3.9795890554    3.0843759107   -0.0000000000
O       -3.7036480154    0.8902480250    0.0000000000
